    1C
    1UUSER                                                              
    1UDATE              12.october.2022                                 
    1UTIME              17:44:03                                        
    1UHOST                                                              
    1UPGM               CalculiX                                        
    1UVERSION           Version 2.16                             
    1UCOMPILETIME       Mon, Jan 20, 2020 12:54:24 AM                    
    1UDIR                                                               
    1UDBN                                                               
    1UMAT    1S420                                                      
    2C                           682                                     1
 -1       280 0.00000E+00 5.90000E-01 2.93250E-01
 -1       282 0.00000E+00 5.90000E-01 3.06750E-01
 -1       283 3.00000E+00 5.90000E-01 2.93250E-01
 -1       285 3.00000E+00 5.90000E-01 3.06750E-01
 -1       286 3.00000E+00 5.00000E-01 2.93250E-01
 -1       288 3.00000E+00 5.00000E-01 3.06750E-01
 -1       289 3.00000E+00 4.95700E-01 3.00000E-01
 -1       291 3.00000E+00 5.04300E-01 3.00000E-01
 -1       300 0.00000E+00 5.00000E-01 2.93250E-01
 -1       302 0.00000E+00 5.00000E-01 3.06750E-01
 -1       303 0.00000E+00 4.95700E-01 3.00000E-01
 -1       305 0.00000E+00 5.04300E-01 3.00000E-01
 -1       314 3.00000E+00 4.10000E-01 2.93250E-01
 -1       316 3.00000E+00 4.10000E-01 3.06750E-01
 -1       317 0.00000E+00 4.10000E-01 2.93250E-01
 -1       319 0.00000E+00 4.10000E-01 3.06750E-01
 -1       320 0.00000E+00 4.95700E-01 7.00000E-01
 -1       322 0.00000E+00 5.04300E-01 7.00000E-01
 -1       323 0.00000E+00 5.00000E-01 7.06750E-01
 -1       325 0.00000E+00 5.00000E-01 6.93250E-01
 -1       334 3.00000E+00 4.95700E-01 7.00000E-01
 -1       336 3.00000E+00 5.04300E-01 7.00000E-01
 -1       337 3.00000E+00 5.00000E-01 7.06750E-01
 -1       339 3.00000E+00 5.00000E-01 6.93250E-01
 -1       348 0.00000E+00 4.10000E-01 7.06750E-01
 -1       350 0.00000E+00 4.10000E-01 6.93250E-01
 -1       351 3.00000E+00 4.10000E-01 7.06750E-01
 -1       353 3.00000E+00 4.10000E-01 6.93250E-01
 -1       354 3.00000E+00 5.90000E-01 7.06750E-01
 -1       356 3.00000E+00 5.90000E-01 6.93250E-01
 -1       357 0.00000E+00 5.90000E-01 7.06750E-01
 -1       359 0.00000E+00 5.90000E-01 6.93250E-01
 -1       360 1.00000E-01 5.90000E-01 2.93250E-01
 -1       362 1.00000E-01 5.90000E-01 3.06750E-01
 -1       363 2.00000E-01 5.90000E-01 2.93250E-01
 -1       365 2.00000E-01 5.90000E-01 3.06750E-01
 -1       366 3.00000E-01 5.90000E-01 2.93250E-01
 -1       368 3.00000E-01 5.90000E-01 3.06750E-01
 -1       369 4.00000E-01 5.90000E-01 2.93250E-01
 -1       371 4.00000E-01 5.90000E-01 3.06750E-01
 -1       372 5.00000E-01 5.90000E-01 2.93250E-01
 -1       374 5.00000E-01 5.90000E-01 3.06750E-01
 -1       375 6.00000E-01 5.90000E-01 2.93250E-01
 -1       377 6.00000E-01 5.90000E-01 3.06750E-01
 -1       378 7.00000E-01 5.90000E-01 2.93250E-01
 -1       380 7.00000E-01 5.90000E-01 3.06750E-01
 -1       381 8.00000E-01 5.90000E-01 2.93250E-01
 -1       383 8.00000E-01 5.90000E-01 3.06750E-01
 -1       384 9.00000E-01 5.90000E-01 2.93250E-01
 -1       386 9.00000E-01 5.90000E-01 3.06750E-01
 -1       387 1.00000E+00 5.90000E-01 2.93250E-01
 -1       389 1.00000E+00 5.90000E-01 3.06750E-01
 -1       390 1.10000E+00 5.90000E-01 2.93250E-01
 -1       392 1.10000E+00 5.90000E-01 3.06750E-01
 -1       393 1.20000E+00 5.90000E-01 2.93250E-01
 -1       395 1.20000E+00 5.90000E-01 3.06750E-01
 -1       396 1.30000E+00 5.90000E-01 2.93250E-01
 -1       398 1.30000E+00 5.90000E-01 3.06750E-01
 -1       399 1.40000E+00 5.90000E-01 2.93250E-01
 -1       401 1.40000E+00 5.90000E-01 3.06750E-01
 -1       402 1.50000E+00 5.90000E-01 2.93250E-01
 -1       404 1.50000E+00 5.90000E-01 3.06750E-01
 -1       405 1.60000E+00 5.90000E-01 2.93250E-01
 -1       407 1.60000E+00 5.90000E-01 3.06750E-01
 -1       408 1.70000E+00 5.90000E-01 2.93250E-01
 -1       410 1.70000E+00 5.90000E-01 3.06750E-01
 -1       411 1.80000E+00 5.90000E-01 2.93250E-01
 -1       413 1.80000E+00 5.90000E-01 3.06750E-01
 -1       414 1.90000E+00 5.90000E-01 2.93250E-01
 -1       416 1.90000E+00 5.90000E-01 3.06750E-01
 -1       417 2.00000E+00 5.90000E-01 2.93250E-01
 -1       419 2.00000E+00 5.90000E-01 3.06750E-01
 -1       420 2.10000E+00 5.90000E-01 2.93250E-01
 -1       422 2.10000E+00 5.90000E-01 3.06750E-01
 -1       423 2.20000E+00 5.90000E-01 2.93250E-01
 -1       425 2.20000E+00 5.90000E-01 3.06750E-01
 -1       426 2.30000E+00 5.90000E-01 2.93250E-01
 -1       428 2.30000E+00 5.90000E-01 3.06750E-01
 -1       429 2.40000E+00 5.90000E-01 2.93250E-01
 -1       431 2.40000E+00 5.90000E-01 3.06750E-01
 -1       432 2.50000E+00 5.90000E-01 2.93250E-01
 -1       434 2.50000E+00 5.90000E-01 3.06750E-01
 -1       435 2.60000E+00 5.90000E-01 2.93250E-01
 -1       437 2.60000E+00 5.90000E-01 3.06750E-01
 -1       438 2.70000E+00 5.90000E-01 2.93250E-01
 -1       440 2.70000E+00 5.90000E-01 3.06750E-01
 -1       441 2.80000E+00 5.90000E-01 2.93250E-01
 -1       443 2.80000E+00 5.90000E-01 3.06750E-01
 -1       444 2.90000E+00 5.90000E-01 2.93250E-01
 -1       446 2.90000E+00 5.90000E-01 3.06750E-01
 -1       447 1.00000E-01 5.00000E-01 2.93250E-01
 -1       449 1.00000E-01 5.00000E-01 3.06750E-01
 -1       450 1.00000E-01 4.95700E-01 3.00000E-01
 -1       452 1.00000E-01 5.04300E-01 3.00000E-01
 -1       461 2.00000E-01 5.00000E-01 2.93250E-01
 -1       463 2.00000E-01 5.00000E-01 3.06750E-01
 -1       464 2.00000E-01 4.95700E-01 3.00000E-01
 -1       466 2.00000E-01 5.04300E-01 3.00000E-01
 -1       475 3.00000E-01 5.00000E-01 2.93250E-01
 -1       477 3.00000E-01 5.00000E-01 3.06750E-01
 -1       478 3.00000E-01 4.95700E-01 3.00000E-01
 -1       480 3.00000E-01 5.04300E-01 3.00000E-01
 -1       489 4.00000E-01 5.00000E-01 2.93250E-01
 -1       491 4.00000E-01 5.00000E-01 3.06750E-01
 -1       492 4.00000E-01 4.95700E-01 3.00000E-01
 -1       494 4.00000E-01 5.04300E-01 3.00000E-01
 -1       503 5.00000E-01 5.00000E-01 2.93250E-01
 -1       505 5.00000E-01 5.00000E-01 3.06750E-01
 -1       506 5.00000E-01 4.95700E-01 3.00000E-01
 -1       508 5.00000E-01 5.04300E-01 3.00000E-01
 -1       517 6.00000E-01 5.00000E-01 2.93250E-01
 -1       519 6.00000E-01 5.00000E-01 3.06750E-01
 -1       520 6.00000E-01 4.95700E-01 3.00000E-01
 -1       522 6.00000E-01 5.04300E-01 3.00000E-01
 -1       531 7.00000E-01 5.00000E-01 2.93250E-01
 -1       533 7.00000E-01 5.00000E-01 3.06750E-01
 -1       534 7.00000E-01 4.95700E-01 3.00000E-01
 -1       536 7.00000E-01 5.04300E-01 3.00000E-01
 -1       545 8.00000E-01 5.00000E-01 2.93250E-01
 -1       547 8.00000E-01 5.00000E-01 3.06750E-01
 -1       548 8.00000E-01 4.95700E-01 3.00000E-01
 -1       550 8.00000E-01 5.04300E-01 3.00000E-01
 -1       559 9.00000E-01 5.00000E-01 2.93250E-01
 -1       561 9.00000E-01 5.00000E-01 3.06750E-01
 -1       562 9.00000E-01 4.95700E-01 3.00000E-01
 -1       564 9.00000E-01 5.04300E-01 3.00000E-01
 -1       573 1.00000E+00 5.00000E-01 2.93250E-01
 -1       575 1.00000E+00 5.00000E-01 3.06750E-01
 -1       576 1.00000E+00 4.95700E-01 3.00000E-01
 -1       578 1.00000E+00 5.04300E-01 3.00000E-01
 -1       587 1.10000E+00 5.00000E-01 2.93250E-01
 -1       589 1.10000E+00 5.00000E-01 3.06750E-01
 -1       590 1.10000E+00 4.95700E-01 3.00000E-01
 -1       592 1.10000E+00 5.04300E-01 3.00000E-01
 -1       601 1.20000E+00 5.00000E-01 2.93250E-01
 -1       603 1.20000E+00 5.00000E-01 3.06750E-01
 -1       604 1.20000E+00 4.95700E-01 3.00000E-01
 -1       606 1.20000E+00 5.04300E-01 3.00000E-01
 -1       615 1.30000E+00 5.00000E-01 2.93250E-01
 -1       617 1.30000E+00 5.00000E-01 3.06750E-01
 -1       618 1.30000E+00 4.95700E-01 3.00000E-01
 -1       620 1.30000E+00 5.04300E-01 3.00000E-01
 -1       629 1.40000E+00 5.00000E-01 2.93250E-01
 -1       631 1.40000E+00 5.00000E-01 3.06750E-01
 -1       632 1.40000E+00 4.95700E-01 3.00000E-01
 -1       634 1.40000E+00 5.04300E-01 3.00000E-01
 -1       643 1.50000E+00 5.00000E-01 2.93250E-01
 -1       645 1.50000E+00 5.00000E-01 3.06750E-01
 -1       646 1.50000E+00 4.95700E-01 3.00000E-01
 -1       648 1.50000E+00 5.04300E-01 3.00000E-01
 -1       657 1.60000E+00 5.00000E-01 2.93250E-01
 -1       659 1.60000E+00 5.00000E-01 3.06750E-01
 -1       660 1.60000E+00 4.95700E-01 3.00000E-01
 -1       662 1.60000E+00 5.04300E-01 3.00000E-01
 -1       671 1.70000E+00 5.00000E-01 2.93250E-01
 -1       673 1.70000E+00 5.00000E-01 3.06750E-01
 -1       674 1.70000E+00 4.95700E-01 3.00000E-01
 -1       676 1.70000E+00 5.04300E-01 3.00000E-01
 -1       685 1.80000E+00 5.00000E-01 2.93250E-01
 -1       687 1.80000E+00 5.00000E-01 3.06750E-01
 -1       688 1.80000E+00 4.95700E-01 3.00000E-01
 -1       690 1.80000E+00 5.04300E-01 3.00000E-01
 -1       699 1.90000E+00 5.00000E-01 2.93250E-01
 -1       701 1.90000E+00 5.00000E-01 3.06750E-01
 -1       702 1.90000E+00 4.95700E-01 3.00000E-01
 -1       704 1.90000E+00 5.04300E-01 3.00000E-01
 -1       713 2.00000E+00 5.00000E-01 2.93250E-01
 -1       715 2.00000E+00 5.00000E-01 3.06750E-01
 -1       716 2.00000E+00 4.95700E-01 3.00000E-01
 -1       718 2.00000E+00 5.04300E-01 3.00000E-01
 -1       727 2.10000E+00 5.00000E-01 2.93250E-01
 -1       729 2.10000E+00 5.00000E-01 3.06750E-01
 -1       730 2.10000E+00 4.95700E-01 3.00000E-01
 -1       732 2.10000E+00 5.04300E-01 3.00000E-01
 -1       741 2.20000E+00 5.00000E-01 2.93250E-01
 -1       743 2.20000E+00 5.00000E-01 3.06750E-01
 -1       744 2.20000E+00 4.95700E-01 3.00000E-01
 -1       746 2.20000E+00 5.04300E-01 3.00000E-01
 -1       755 2.30000E+00 5.00000E-01 2.93250E-01
 -1       757 2.30000E+00 5.00000E-01 3.06750E-01
 -1       758 2.30000E+00 4.95700E-01 3.00000E-01
 -1       760 2.30000E+00 5.04300E-01 3.00000E-01
 -1       769 2.40000E+00 5.00000E-01 2.93250E-01
 -1       771 2.40000E+00 5.00000E-01 3.06750E-01
 -1       772 2.40000E+00 4.95700E-01 3.00000E-01
 -1       774 2.40000E+00 5.04300E-01 3.00000E-01
 -1       783 2.50000E+00 5.00000E-01 2.93250E-01
 -1       785 2.50000E+00 5.00000E-01 3.06750E-01
 -1       786 2.50000E+00 4.95700E-01 3.00000E-01
 -1       788 2.50000E+00 5.04300E-01 3.00000E-01
 -1       797 2.60000E+00 5.00000E-01 2.93250E-01
 -1       799 2.60000E+00 5.00000E-01 3.06750E-01
 -1       800 2.60000E+00 4.95700E-01 3.00000E-01
 -1       802 2.60000E+00 5.04300E-01 3.00000E-01
 -1       811 2.70000E+00 5.00000E-01 2.93250E-01
 -1       813 2.70000E+00 5.00000E-01 3.06750E-01
 -1       814 2.70000E+00 4.95700E-01 3.00000E-01
 -1       816 2.70000E+00 5.04300E-01 3.00000E-01
 -1       825 2.80000E+00 5.00000E-01 2.93250E-01
 -1       827 2.80000E+00 5.00000E-01 3.06750E-01
 -1       828 2.80000E+00 4.95700E-01 3.00000E-01
 -1       830 2.80000E+00 5.04300E-01 3.00000E-01
 -1       839 2.90000E+00 5.00000E-01 2.93250E-01
 -1       841 2.90000E+00 5.00000E-01 3.06750E-01
 -1       842 2.90000E+00 4.95700E-01 3.00000E-01
 -1       844 2.90000E+00 5.04300E-01 3.00000E-01
 -1       853 1.00000E-01 4.10000E-01 2.93250E-01
 -1       855 1.00000E-01 4.10000E-01 3.06750E-01
 -1       856 2.00000E-01 4.10000E-01 2.93250E-01
 -1       858 2.00000E-01 4.10000E-01 3.06750E-01
 -1       859 3.00000E-01 4.10000E-01 2.93250E-01
 -1       861 3.00000E-01 4.10000E-01 3.06750E-01
 -1       862 4.00000E-01 4.10000E-01 2.93250E-01
 -1       864 4.00000E-01 4.10000E-01 3.06750E-01
 -1       865 5.00000E-01 4.10000E-01 2.93250E-01
 -1       867 5.00000E-01 4.10000E-01 3.06750E-01
 -1       868 6.00000E-01 4.10000E-01 2.93250E-01
 -1       870 6.00000E-01 4.10000E-01 3.06750E-01
 -1       871 7.00000E-01 4.10000E-01 2.93250E-01
 -1       873 7.00000E-01 4.10000E-01 3.06750E-01
 -1       874 8.00000E-01 4.10000E-01 2.93250E-01
 -1       876 8.00000E-01 4.10000E-01 3.06750E-01
 -1       877 9.00000E-01 4.10000E-01 2.93250E-01
 -1       879 9.00000E-01 4.10000E-01 3.06750E-01
 -1       880 1.00000E+00 4.10000E-01 2.93250E-01
 -1       882 1.00000E+00 4.10000E-01 3.06750E-01
 -1       883 1.10000E+00 4.10000E-01 2.93250E-01
 -1       885 1.10000E+00 4.10000E-01 3.06750E-01
 -1       886 1.20000E+00 4.10000E-01 2.93250E-01
 -1       888 1.20000E+00 4.10000E-01 3.06750E-01
 -1       889 1.30000E+00 4.10000E-01 2.93250E-01
 -1       891 1.30000E+00 4.10000E-01 3.06750E-01
 -1       892 1.40000E+00 4.10000E-01 2.93250E-01
 -1       894 1.40000E+00 4.10000E-01 3.06750E-01
 -1       895 1.50000E+00 4.10000E-01 2.93250E-01
 -1       897 1.50000E+00 4.10000E-01 3.06750E-01
 -1       898 1.60000E+00 4.10000E-01 2.93250E-01
 -1       900 1.60000E+00 4.10000E-01 3.06750E-01
 -1       901 1.70000E+00 4.10000E-01 2.93250E-01
 -1       903 1.70000E+00 4.10000E-01 3.06750E-01
 -1       904 1.80000E+00 4.10000E-01 2.93250E-01
 -1       906 1.80000E+00 4.10000E-01 3.06750E-01
 -1       907 1.90000E+00 4.10000E-01 2.93250E-01
 -1       909 1.90000E+00 4.10000E-01 3.06750E-01
 -1       910 2.00000E+00 4.10000E-01 2.93250E-01
 -1       912 2.00000E+00 4.10000E-01 3.06750E-01
 -1       913 2.10000E+00 4.10000E-01 2.93250E-01
 -1       915 2.10000E+00 4.10000E-01 3.06750E-01
 -1       916 2.20000E+00 4.10000E-01 2.93250E-01
 -1       918 2.20000E+00 4.10000E-01 3.06750E-01
 -1       919 2.30000E+00 4.10000E-01 2.93250E-01
 -1       921 2.30000E+00 4.10000E-01 3.06750E-01
 -1       922 2.40000E+00 4.10000E-01 2.93250E-01
 -1       924 2.40000E+00 4.10000E-01 3.06750E-01
 -1       925 2.50000E+00 4.10000E-01 2.93250E-01
 -1       927 2.50000E+00 4.10000E-01 3.06750E-01
 -1       928 2.60000E+00 4.10000E-01 2.93250E-01
 -1       930 2.60000E+00 4.10000E-01 3.06750E-01
 -1       931 2.70000E+00 4.10000E-01 2.93250E-01
 -1       933 2.70000E+00 4.10000E-01 3.06750E-01
 -1       934 2.80000E+00 4.10000E-01 2.93250E-01
 -1       936 2.80000E+00 4.10000E-01 3.06750E-01
 -1       937 2.90000E+00 4.10000E-01 2.93250E-01
 -1       939 2.90000E+00 4.10000E-01 3.06750E-01
 -1       940 0.00000E+00 4.95700E-01 4.00000E-01
 -1       942 0.00000E+00 5.04300E-01 4.00000E-01
 -1       943 0.00000E+00 4.95700E-01 5.00000E-01
 -1       945 0.00000E+00 5.04300E-01 5.00000E-01
 -1       946 0.00000E+00 4.95700E-01 6.00000E-01
 -1       948 0.00000E+00 5.04300E-01 6.00000E-01
 -1       949 1.00000E-01 4.95700E-01 7.00000E-01
 -1       951 1.00000E-01 5.04300E-01 7.00000E-01
 -1       952 1.00000E-01 5.00000E-01 7.06750E-01
 -1       954 1.00000E-01 5.00000E-01 6.93250E-01
 -1       963 2.00000E-01 4.95700E-01 7.00000E-01
 -1       965 2.00000E-01 5.04300E-01 7.00000E-01
 -1       966 2.00000E-01 5.00000E-01 7.06750E-01
 -1       968 2.00000E-01 5.00000E-01 6.93250E-01
 -1       977 3.00000E-01 4.95700E-01 7.00000E-01
 -1       979 3.00000E-01 5.04300E-01 7.00000E-01
 -1       980 3.00000E-01 5.00000E-01 7.06750E-01
 -1       982 3.00000E-01 5.00000E-01 6.93250E-01
 -1       991 4.00000E-01 4.95700E-01 7.00000E-01
 -1       993 4.00000E-01 5.04300E-01 7.00000E-01
 -1       994 4.00000E-01 5.00000E-01 7.06750E-01
 -1       996 4.00000E-01 5.00000E-01 6.93250E-01
 -1      1005 5.00000E-01 4.95700E-01 7.00000E-01
 -1      1007 5.00000E-01 5.04300E-01 7.00000E-01
 -1      1008 5.00000E-01 5.00000E-01 7.06750E-01
 -1      1010 5.00000E-01 5.00000E-01 6.93250E-01
 -1      1019 6.00000E-01 4.95700E-01 7.00000E-01
 -1      1021 6.00000E-01 5.04300E-01 7.00000E-01
 -1      1022 6.00000E-01 5.00000E-01 7.06750E-01
 -1      1024 6.00000E-01 5.00000E-01 6.93250E-01
 -1      1033 7.00000E-01 4.95700E-01 7.00000E-01
 -1      1035 7.00000E-01 5.04300E-01 7.00000E-01
 -1      1036 7.00000E-01 5.00000E-01 7.06750E-01
 -1      1038 7.00000E-01 5.00000E-01 6.93250E-01
 -1      1047 8.00000E-01 4.95700E-01 7.00000E-01
 -1      1049 8.00000E-01 5.04300E-01 7.00000E-01
 -1      1050 8.00000E-01 5.00000E-01 7.06750E-01
 -1      1052 8.00000E-01 5.00000E-01 6.93250E-01
 -1      1061 9.00000E-01 4.95700E-01 7.00000E-01
 -1      1063 9.00000E-01 5.04300E-01 7.00000E-01
 -1      1064 9.00000E-01 5.00000E-01 7.06750E-01
 -1      1066 9.00000E-01 5.00000E-01 6.93250E-01
 -1      1075 1.00000E+00 4.95700E-01 7.00000E-01
 -1      1077 1.00000E+00 5.04300E-01 7.00000E-01
 -1      1078 1.00000E+00 5.00000E-01 7.06750E-01
 -1      1080 1.00000E+00 5.00000E-01 6.93250E-01
 -1      1089 1.10000E+00 4.95700E-01 7.00000E-01
 -1      1091 1.10000E+00 5.04300E-01 7.00000E-01
 -1      1092 1.10000E+00 5.00000E-01 7.06750E-01
 -1      1094 1.10000E+00 5.00000E-01 6.93250E-01
 -1      1103 1.20000E+00 4.95700E-01 7.00000E-01
 -1      1105 1.20000E+00 5.04300E-01 7.00000E-01
 -1      1106 1.20000E+00 5.00000E-01 7.06750E-01
 -1      1108 1.20000E+00 5.00000E-01 6.93250E-01
 -1      1117 1.30000E+00 4.95700E-01 7.00000E-01
 -1      1119 1.30000E+00 5.04300E-01 7.00000E-01
 -1      1120 1.30000E+00 5.00000E-01 7.06750E-01
 -1      1122 1.30000E+00 5.00000E-01 6.93250E-01
 -1      1131 1.40000E+00 4.95700E-01 7.00000E-01
 -1      1133 1.40000E+00 5.04300E-01 7.00000E-01
 -1      1134 1.40000E+00 5.00000E-01 7.06750E-01
 -1      1136 1.40000E+00 5.00000E-01 6.93250E-01
 -1      1145 1.50000E+00 4.95700E-01 7.00000E-01
 -1      1147 1.50000E+00 5.04300E-01 7.00000E-01
 -1      1148 1.50000E+00 5.00000E-01 7.06750E-01
 -1      1150 1.50000E+00 5.00000E-01 6.93250E-01
 -1      1159 1.60000E+00 4.95700E-01 7.00000E-01
 -1      1161 1.60000E+00 5.04300E-01 7.00000E-01
 -1      1162 1.60000E+00 5.00000E-01 7.06750E-01
 -1      1164 1.60000E+00 5.00000E-01 6.93250E-01
 -1      1173 1.70000E+00 4.95700E-01 7.00000E-01
 -1      1175 1.70000E+00 5.04300E-01 7.00000E-01
 -1      1176 1.70000E+00 5.00000E-01 7.06750E-01
 -1      1178 1.70000E+00 5.00000E-01 6.93250E-01
 -1      1187 1.80000E+00 4.95700E-01 7.00000E-01
 -1      1189 1.80000E+00 5.04300E-01 7.00000E-01
 -1      1190 1.80000E+00 5.00000E-01 7.06750E-01
 -1      1192 1.80000E+00 5.00000E-01 6.93250E-01
 -1      1201 1.90000E+00 4.95700E-01 7.00000E-01
 -1      1203 1.90000E+00 5.04300E-01 7.00000E-01
 -1      1204 1.90000E+00 5.00000E-01 7.06750E-01
 -1      1206 1.90000E+00 5.00000E-01 6.93250E-01
 -1      1215 2.00000E+00 4.95700E-01 7.00000E-01
 -1      1217 2.00000E+00 5.04300E-01 7.00000E-01
 -1      1218 2.00000E+00 5.00000E-01 7.06750E-01
 -1      1220 2.00000E+00 5.00000E-01 6.93250E-01
 -1      1229 2.10000E+00 4.95700E-01 7.00000E-01
 -1      1231 2.10000E+00 5.04300E-01 7.00000E-01
 -1      1232 2.10000E+00 5.00000E-01 7.06750E-01
 -1      1234 2.10000E+00 5.00000E-01 6.93250E-01
 -1      1243 2.20000E+00 4.95700E-01 7.00000E-01
 -1      1245 2.20000E+00 5.04300E-01 7.00000E-01
 -1      1246 2.20000E+00 5.00000E-01 7.06750E-01
 -1      1248 2.20000E+00 5.00000E-01 6.93250E-01
 -1      1257 2.30000E+00 4.95700E-01 7.00000E-01
 -1      1259 2.30000E+00 5.04300E-01 7.00000E-01
 -1      1260 2.30000E+00 5.00000E-01 7.06750E-01
 -1      1262 2.30000E+00 5.00000E-01 6.93250E-01
 -1      1271 2.40000E+00 4.95700E-01 7.00000E-01
 -1      1273 2.40000E+00 5.04300E-01 7.00000E-01
 -1      1274 2.40000E+00 5.00000E-01 7.06750E-01
 -1      1276 2.40000E+00 5.00000E-01 6.93250E-01
 -1      1285 2.50000E+00 4.95700E-01 7.00000E-01
 -1      1287 2.50000E+00 5.04300E-01 7.00000E-01
 -1      1288 2.50000E+00 5.00000E-01 7.06750E-01
 -1      1290 2.50000E+00 5.00000E-01 6.93250E-01
 -1      1299 2.60000E+00 4.95700E-01 7.00000E-01
 -1      1301 2.60000E+00 5.04300E-01 7.00000E-01
 -1      1302 2.60000E+00 5.00000E-01 7.06750E-01
 -1      1304 2.60000E+00 5.00000E-01 6.93250E-01
 -1      1313 2.70000E+00 4.95700E-01 7.00000E-01
 -1      1315 2.70000E+00 5.04300E-01 7.00000E-01
 -1      1316 2.70000E+00 5.00000E-01 7.06750E-01
 -1      1318 2.70000E+00 5.00000E-01 6.93250E-01
 -1      1327 2.80000E+00 4.95700E-01 7.00000E-01
 -1      1329 2.80000E+00 5.04300E-01 7.00000E-01
 -1      1330 2.80000E+00 5.00000E-01 7.06750E-01
 -1      1332 2.80000E+00 5.00000E-01 6.93250E-01
 -1      1341 2.90000E+00 4.95700E-01 7.00000E-01
 -1      1343 2.90000E+00 5.04300E-01 7.00000E-01
 -1      1344 2.90000E+00 5.00000E-01 7.06750E-01
 -1      1346 2.90000E+00 5.00000E-01 6.93250E-01
 -1      1355 3.00000E+00 4.95700E-01 4.00000E-01
 -1      1357 3.00000E+00 5.04300E-01 4.00000E-01
 -1      1358 3.00000E+00 4.95700E-01 5.00000E-01
 -1      1360 3.00000E+00 5.04300E-01 5.00000E-01
 -1      1361 3.00000E+00 4.95700E-01 6.00000E-01
 -1      1363 3.00000E+00 5.04300E-01 6.00000E-01
 -1      1364 1.00000E-01 4.10000E-01 7.06750E-01
 -1      1366 1.00000E-01 4.10000E-01 6.93250E-01
 -1      1367 2.00000E-01 4.10000E-01 7.06750E-01
 -1      1369 2.00000E-01 4.10000E-01 6.93250E-01
 -1      1370 3.00000E-01 4.10000E-01 7.06750E-01
 -1      1372 3.00000E-01 4.10000E-01 6.93250E-01
 -1      1373 4.00000E-01 4.10000E-01 7.06750E-01
 -1      1375 4.00000E-01 4.10000E-01 6.93250E-01
 -1      1376 5.00000E-01 4.10000E-01 7.06750E-01
 -1      1378 5.00000E-01 4.10000E-01 6.93250E-01
 -1      1379 6.00000E-01 4.10000E-01 7.06750E-01
 -1      1381 6.00000E-01 4.10000E-01 6.93250E-01
 -1      1382 7.00000E-01 4.10000E-01 7.06750E-01
 -1      1384 7.00000E-01 4.10000E-01 6.93250E-01
 -1      1385 8.00000E-01 4.10000E-01 7.06750E-01
 -1      1387 8.00000E-01 4.10000E-01 6.93250E-01
 -1      1388 9.00000E-01 4.10000E-01 7.06750E-01
 -1      1390 9.00000E-01 4.10000E-01 6.93250E-01
 -1      1391 1.00000E+00 4.10000E-01 7.06750E-01
 -1      1393 1.00000E+00 4.10000E-01 6.93250E-01
 -1      1394 1.10000E+00 4.10000E-01 7.06750E-01
 -1      1396 1.10000E+00 4.10000E-01 6.93250E-01
 -1      1397 1.20000E+00 4.10000E-01 7.06750E-01
 -1      1399 1.20000E+00 4.10000E-01 6.93250E-01
 -1      1400 1.30000E+00 4.10000E-01 7.06750E-01
 -1      1402 1.30000E+00 4.10000E-01 6.93250E-01
 -1      1403 1.40000E+00 4.10000E-01 7.06750E-01
 -1      1405 1.40000E+00 4.10000E-01 6.93250E-01
 -1      1406 1.50000E+00 4.10000E-01 7.06750E-01
 -1      1408 1.50000E+00 4.10000E-01 6.93250E-01
 -1      1409 1.60000E+00 4.10000E-01 7.06750E-01
 -1      1411 1.60000E+00 4.10000E-01 6.93250E-01
 -1      1412 1.70000E+00 4.10000E-01 7.06750E-01
 -1      1414 1.70000E+00 4.10000E-01 6.93250E-01
 -1      1415 1.80000E+00 4.10000E-01 7.06750E-01
 -1      1417 1.80000E+00 4.10000E-01 6.93250E-01
 -1      1418 1.90000E+00 4.10000E-01 7.06750E-01
 -1      1420 1.90000E+00 4.10000E-01 6.93250E-01
 -1      1421 2.00000E+00 4.10000E-01 7.06750E-01
 -1      1423 2.00000E+00 4.10000E-01 6.93250E-01
 -1      1424 2.10000E+00 4.10000E-01 7.06750E-01
 -1      1426 2.10000E+00 4.10000E-01 6.93250E-01
 -1      1427 2.20000E+00 4.10000E-01 7.06750E-01
 -1      1429 2.20000E+00 4.10000E-01 6.93250E-01
 -1      1430 2.30000E+00 4.10000E-01 7.06750E-01
 -1      1432 2.30000E+00 4.10000E-01 6.93250E-01
 -1      1433 2.40000E+00 4.10000E-01 7.06750E-01
 -1      1435 2.40000E+00 4.10000E-01 6.93250E-01
 -1      1436 2.50000E+00 4.10000E-01 7.06750E-01
 -1      1438 2.50000E+00 4.10000E-01 6.93250E-01
 -1      1439 2.60000E+00 4.10000E-01 7.06750E-01
 -1      1441 2.60000E+00 4.10000E-01 6.93250E-01
 -1      1442 2.70000E+00 4.10000E-01 7.06750E-01
 -1      1444 2.70000E+00 4.10000E-01 6.93250E-01
 -1      1445 2.80000E+00 4.10000E-01 7.06750E-01
 -1      1447 2.80000E+00 4.10000E-01 6.93250E-01
 -1      1448 2.90000E+00 4.10000E-01 7.06750E-01
 -1      1450 2.90000E+00 4.10000E-01 6.93250E-01
 -1      1451 1.00000E-01 5.90000E-01 7.06750E-01
 -1      1453 1.00000E-01 5.90000E-01 6.93250E-01
 -1      1454 2.00000E-01 5.90000E-01 7.06750E-01
 -1      1456 2.00000E-01 5.90000E-01 6.93250E-01
 -1      1457 3.00000E-01 5.90000E-01 7.06750E-01
 -1      1459 3.00000E-01 5.90000E-01 6.93250E-01
 -1      1460 4.00000E-01 5.90000E-01 7.06750E-01
 -1      1462 4.00000E-01 5.90000E-01 6.93250E-01
 -1      1463 5.00000E-01 5.90000E-01 7.06750E-01
 -1      1465 5.00000E-01 5.90000E-01 6.93250E-01
 -1      1466 6.00000E-01 5.90000E-01 7.06750E-01
 -1      1468 6.00000E-01 5.90000E-01 6.93250E-01
 -1      1469 7.00000E-01 5.90000E-01 7.06750E-01
 -1      1471 7.00000E-01 5.90000E-01 6.93250E-01
 -1      1472 8.00000E-01 5.90000E-01 7.06750E-01
 -1      1474 8.00000E-01 5.90000E-01 6.93250E-01
 -1      1475 9.00000E-01 5.90000E-01 7.06750E-01
 -1      1477 9.00000E-01 5.90000E-01 6.93250E-01
 -1      1478 1.00000E+00 5.90000E-01 7.06750E-01
 -1      1480 1.00000E+00 5.90000E-01 6.93250E-01
 -1      1481 1.10000E+00 5.90000E-01 7.06750E-01
 -1      1483 1.10000E+00 5.90000E-01 6.93250E-01
 -1      1484 1.20000E+00 5.90000E-01 7.06750E-01
 -1      1486 1.20000E+00 5.90000E-01 6.93250E-01
 -1      1487 1.30000E+00 5.90000E-01 7.06750E-01
 -1      1489 1.30000E+00 5.90000E-01 6.93250E-01
 -1      1490 1.40000E+00 5.90000E-01 7.06750E-01
 -1      1492 1.40000E+00 5.90000E-01 6.93250E-01
 -1      1493 1.50000E+00 5.90000E-01 7.06750E-01
 -1      1495 1.50000E+00 5.90000E-01 6.93250E-01
 -1      1496 1.60000E+00 5.90000E-01 7.06750E-01
 -1      1498 1.60000E+00 5.90000E-01 6.93250E-01
 -1      1499 1.70000E+00 5.90000E-01 7.06750E-01
 -1      1501 1.70000E+00 5.90000E-01 6.93250E-01
 -1      1502 1.80000E+00 5.90000E-01 7.06750E-01
 -1      1504 1.80000E+00 5.90000E-01 6.93250E-01
 -1      1505 1.90000E+00 5.90000E-01 7.06750E-01
 -1      1507 1.90000E+00 5.90000E-01 6.93250E-01
 -1      1508 2.00000E+00 5.90000E-01 7.06750E-01
 -1      1510 2.00000E+00 5.90000E-01 6.93250E-01
 -1      1511 2.10000E+00 5.90000E-01 7.06750E-01
 -1      1513 2.10000E+00 5.90000E-01 6.93250E-01
 -1      1514 2.20000E+00 5.90000E-01 7.06750E-01
 -1      1516 2.20000E+00 5.90000E-01 6.93250E-01
 -1      1517 2.30000E+00 5.90000E-01 7.06750E-01
 -1      1519 2.30000E+00 5.90000E-01 6.93250E-01
 -1      1520 2.40000E+00 5.90000E-01 7.06750E-01
 -1      1522 2.40000E+00 5.90000E-01 6.93250E-01
 -1      1523 2.50000E+00 5.90000E-01 7.06750E-01
 -1      1525 2.50000E+00 5.90000E-01 6.93250E-01
 -1      1526 2.60000E+00 5.90000E-01 7.06750E-01
 -1      1528 2.60000E+00 5.90000E-01 6.93250E-01
 -1      1529 2.70000E+00 5.90000E-01 7.06750E-01
 -1      1531 2.70000E+00 5.90000E-01 6.93250E-01
 -1      1532 2.80000E+00 5.90000E-01 7.06750E-01
 -1      1534 2.80000E+00 5.90000E-01 6.93250E-01
 -1      1535 2.90000E+00 5.90000E-01 7.06750E-01
 -1      1537 2.90000E+00 5.90000E-01 6.93250E-01
 -1      1538 8.00000E-01 4.95700E-01 4.00000E-01
 -1      1540 8.00000E-01 5.04300E-01 4.00000E-01
 -1      1541 2.10000E+00 4.95700E-01 6.00000E-01
 -1      1543 2.10000E+00 5.04300E-01 6.00000E-01
 -1      1544 2.50000E+00 4.95700E-01 4.00000E-01
 -1      1546 2.50000E+00 5.04300E-01 4.00000E-01
 -1      1547 2.80000E+00 4.95700E-01 4.00000E-01
 -1      1549 2.80000E+00 5.04300E-01 4.00000E-01
 -1      1550 1.00000E+00 4.95700E-01 6.00000E-01
 -1      1552 1.00000E+00 5.04300E-01 6.00000E-01
 -1      1553 1.30000E+00 4.95700E-01 4.00000E-01
 -1      1555 1.30000E+00 5.04300E-01 4.00000E-01
 -1      1556 1.70000E+00 4.95700E-01 4.00000E-01
 -1      1558 1.70000E+00 5.04300E-01 4.00000E-01
 -1      1559 3.00000E-01 4.95700E-01 4.00000E-01
 -1      1561 3.00000E-01 5.04300E-01 4.00000E-01
 -1      1562 6.00000E-01 4.95700E-01 4.00000E-01
 -1      1564 6.00000E-01 5.04300E-01 4.00000E-01
 -1      1565 7.00000E-01 4.95700E-01 6.00000E-01
 -1      1567 7.00000E-01 5.04300E-01 6.00000E-01
 -1      1568 2.40000E+00 4.95700E-01 6.00000E-01
 -1      1570 2.40000E+00 5.04300E-01 6.00000E-01
 -1      1571 2.70000E+00 4.95700E-01 6.00000E-01
 -1      1573 2.70000E+00 5.04300E-01 6.00000E-01
 -1      1574 2.10000E+00 4.95700E-01 4.00000E-01
 -1      1576 2.10000E+00 5.04300E-01 4.00000E-01
 -1      1577 1.00000E+00 4.95700E-01 4.00000E-01
 -1      1579 1.00000E+00 5.04300E-01 4.00000E-01
 -1      1580 1.20000E+00 4.95700E-01 6.00000E-01
 -1      1582 1.20000E+00 5.04300E-01 6.00000E-01
 -1      1583 1.30000E+00 4.95700E-01 6.00000E-01
 -1      1585 1.30000E+00 5.04300E-01 6.00000E-01
 -1      1586 1.60000E+00 4.95700E-01 6.00000E-01
 -1      1588 1.60000E+00 5.04300E-01 6.00000E-01
 -1      1589 1.80000E+00 4.95700E-01 6.00000E-01
 -1      1591 1.80000E+00 5.04300E-01 6.00000E-01
 -1      1592 1.60000E+00 4.95700E-01 4.00000E-01
 -1      1594 1.60000E+00 5.04300E-01 4.00000E-01
 -1      1595 1.90000E+00 4.95700E-01 4.00000E-01
 -1      1597 1.90000E+00 5.04300E-01 4.00000E-01
 -1      1598 2.00000E-01 4.95700E-01 6.00000E-01
 -1      1600 2.00000E-01 5.04300E-01 6.00000E-01
 -1      1601 3.00000E-01 4.95700E-01 6.00000E-01
 -1      1603 3.00000E-01 5.04300E-01 6.00000E-01
 -1      1604 5.00000E-01 4.95700E-01 6.00000E-01
 -1      1606 5.00000E-01 5.04300E-01 6.00000E-01
 -1      1607 1.00000E-01 4.95700E-01 5.00000E-01
 -1      1609 1.00000E-01 5.04300E-01 5.00000E-01
 -1      1610 2.90000E+00 4.95700E-01 6.00000E-01
 -1      1612 2.90000E+00 5.04300E-01 6.00000E-01
 -1      1613 8.00000E-01 4.95700E-01 6.00000E-01
 -1      1615 8.00000E-01 5.04300E-01 6.00000E-01
 -1      1616 2.30000E+00 4.95700E-01 4.00000E-01
 -1      1618 2.30000E+00 5.04300E-01 4.00000E-01
 -1      1619 2.20000E+00 4.95700E-01 6.00000E-01
 -1      1621 2.20000E+00 5.04300E-01 6.00000E-01
 -1      1622 2.90000E+00 4.95700E-01 4.00000E-01
 -1      1624 2.90000E+00 5.04300E-01 4.00000E-01
 -1      1625 1.20000E+00 4.95700E-01 4.00000E-01
 -1      1627 1.20000E+00 5.04300E-01 4.00000E-01
 -1      1628 1.00000E-01 4.95700E-01 4.00000E-01
 -1      1630 1.00000E-01 5.04300E-01 4.00000E-01
 -1      1631 1.90000E+00 4.95700E-01 6.00000E-01
 -1      1633 1.90000E+00 5.04300E-01 6.00000E-01
 -1      1634 1.50000E+00 4.95700E-01 4.00000E-01
 -1      1636 1.50000E+00 5.04300E-01 4.00000E-01
 -1      1637 1.40000E+00 4.95700E-01 6.00000E-01
 -1      1639 1.40000E+00 5.04300E-01 6.00000E-01
 -1      1640 2.70000E+00 4.95700E-01 4.00000E-01
 -1      1642 2.70000E+00 5.04300E-01 4.00000E-01
 -1      1643 2.50000E+00 4.95700E-01 6.00000E-01
 -1      1645 2.50000E+00 5.04300E-01 6.00000E-01
 -1      1646 1.00000E-01 4.95700E-01 6.00000E-01
 -1      1648 1.00000E-01 5.04300E-01 6.00000E-01
 -1      1649 5.00000E-01 4.95700E-01 4.00000E-01