# vtk DataFile Version 3.4
Image
ASCII
DATASET STRUCTURED_POINTS
DIMENSIONS 10 10 1
ORIGIN 0.0 0.0 0.0
SPACING 0.5 0.5 0.0
POINT_DATA 100
SCALARS transmissivity float 1
LOOKUP_TABLE default
0.298739662586
0.279131445489
0.291060629758
0.209081029997
0.167312512876
0.17295265379
0.2100958905
0.203211077558
0.194905559894
0.194502141846
0.131241923907
0.19249787806
0.200954738051
0.155585026284
0.182841950501
0.187871957767
0.207598852496
0.195911898513
0.208253505857
0.1920442551
0.202996450184
0.252721080135
0.23671796761
0.233189895756
0.270186702166
0.272931816024
0.270380706188
0.235920429082
0.295855745957
0.262264695111
0.259718930583
0.230059095126
0.234317359927
0.237685617976
0.214377778761
0.212776562413
0.191132637109
0.190419933446
0.19304295094
0.219138618799
0.280266184206
0.232735721002
0.2013628867
0.242265369993
0.204605952014
0.217593655281
0.257883000267
0.265031911042
0.252164884194
0.274015475987
0.258132330746
0.258587001316
0.20202912732
0.177675067263
0.172328034934
0.207081436701
0.280701097154
0.236035028008
0.22751839086
0.198225008225
0.166977802309
0.167918014212
0.171268784021
0.162286321399
0.225587172718
0.255948616943
0.169888780058
0.131652207091
0.164775824684
0.225934163991
0.235147380819
0.306821054112
0.26003544081
0.247473520841
0.24507626514
0.199585971691
0.146278300724
0.146749272746
0.227855782454
0.243324810464
0.263984406253
0.202267248848
0.185525164757
0.207851666271
0.22789498338
0.175890885834
0.158555750876
0.251900632165
0.213176490915
0.204000194234
0.250290544772
0.2187337482
0.211795398808
0.185664474197
0.174563178783
0.174648363874
0.166720082135
0.12097483942
0.122984046496
0.205734861691
