# vtk DataFile Version 4.2
vtk output
ASCII
DATASET STRUCTURED_POINTS
DIMENSIONS 7 7 3
ASPECT_RATIO 1 1 1
ORIGIN 0 0 0
CELL_DATA 72
FIELD FieldData 2
pressure1 1 72 double
0.8677104542 0.51636185155 0.60688284218 0.46963710959 0.84631932221 0.19738233512 0.10449260542 0.13325513899 0.1261254424
0.92811591687 0.85276551296 0.87436138227 0.57021773734 0.64484045379 0.83211192182 0.91742765699 0.78576559398 0.61298629515
0.6735725119 0.95343444683 0.94452291226 0.75495718491 0.92715036051 0.41195114237 0.16643423413 0.77370647925 0.87340165423
0.25739115973 0.25705504591 0.31147847687 0.7299432699 0.70197478982 0.1637118679 0.3955116108 0.5419513408 0.043992262805
0.63705083954 0.15316737283 0.81736094123 0.62336803143 0.50731765079 0.11081170015 0.56418617227 0.91414438791 0.052267630295
0.11663225967 0.98749503289 0.61230653547 0.95160106712 0.36307324908 0.93814204076 0.47078090661 0.3778094117 0.98835590606
0.041782676901 0.41421973924 0.51073980308 0.84948398985 0.70052446738 0.064860319334 0.36908298368 0.55362015347 0.13069604232
0.11563651603 0.034805442219 0.22238653602 0.24687431521 0.94102825318 0.89631139818 0.49057691045 0.83937323407 0.40715670809

METADATA
INFORMATION 0

pressure2 1 72 double
0.8677104542 0.51636185155 0.60688284218 0.46963710959 0.84631932221 0.19738233512 0.10449260542 0.13325513899 0.1261254424
0.92811591687 0.85276551296 0.87436138227 0.57021773734 0.64484045379 0.83211192182 0.91742765699 0.78576559398 0.61298629515
0.6735725119 0.95343444683 0.94452291226 0.75495718491 0.92715036051 0.41195114237 0.16643423413 0.77370647925 0.87340165423
0.25739115973 0.25705504591 0.31147847687 0.7299432699 0.70197478982 0.1637118679 0.3955116108 0.5419513408 0.043992262805
0.63705083954 0.15316737283 0.81736094123 0.62336803143 0.50731765079 0.11081170015 0.56418617227 0.91414438791 0.052267630295
0.11663225967 0.98749503289 0.61230653547 0.95160106712 0.36307324908 0.93814204076 0.47078090661 0.3778094117 0.98835590606
0.041782676901 0.41421973924 0.51073980308 0.84948398985 0.70052446738 0.064860319334 0.36908298368 0.55362015347 0.13069604232
0.11563651603 0.034805442219 0.22238653602 0.24687431521 0.94102825318 0.89631139818 0.49057691045 0.83937323407 0.40715670809

METADATA
INFORMATION 0

POINT_DATA 147
FIELD FieldData 2
temp1 1 147 double
0.19932609943 0.080484975432 0.62271676952 0.17526854106 0.85265478881 0.20618656795 0.84349132399 0.038892471051 0.90607584362
0.53145615434 0.31918008657 0.20474882787 0.026379692258 0.48104509843 0.50001234209 0.045244591207 0.83508077518 0.47561534276
0.40962142531 0.0011841612877 0.14709018583 0.75095831727 0.48417916779 0.18271087896 0.54656071738 0.75066701975 0.92200696569
0.99769339208 0.26117515176 0.085311465967 0.1646683261 0.81218612228 0.63122274863 0.56536002542 0.61634033728 0.51835579684
0.4278608922 0.630029077 0.61492773995 0.54908405353 0.7708722292 0.25359302007 0.70233431709 0.61075920411 0.9125950554
0.55867195058 0.028337602721 0.75342955411 0.35627445538 0.65575668043 0.10189677317 0.81150143817 0.61299601434 0.21606925506
0.60478711464 0.83937102764 0.85003752009 0.044045564549 0.46397193546 0.76703318221 0.060487798272 0.089849800165 0.6698869959
0.49180368025 0.054588170455 0.60657339138 0.99430585956 0.95520254464 0.41486965842 0.31728314337 0.7863231829 0.021234945228
0.51786325975 0.072245341545 0.7311841733 0.0059933017956 0.14530623862 0.70174168053 0.047421832096 0.65318254961 0.23720001553
0.58673678257 0.22685717667 0.12009824017 0.038425067107 0.035546247175 0.10844204481 0.46533179621 0.19527170909 0.014046989322
0.98575901443 0.12321432463 0.04330563787 0.31288353454 0.77184910491 0.50055628109 0.91733177324 0.94877989401 0.98760860859
0.62370960235 0.1802712889 0.60612390385 0.27937860958 0.78119102642 0.2098678809 0.23795094593 0.87305172717 0.022913016055
0.85021930614 0.34946437346 0.20389954341 0.64959363365 0.10151151857 0.95849443411 0.18591031788 0.26712287986 0.21679083654
0.30027647079 0.92909265289 0.058716366373 0.41706634312 0.62893832977 0.438984896 0.27390875927 0.058657266281 0.05994697265
0.39632622578 0.24057772072 0.26926772847 0.90228743973 0.7462902986 0.55399859345 0.28386352495 0.02032014315 0.84847748999
0.089787722754 0.094645324833 0.70209677424 0.9284726152 0.20015337624 0.61003086407 0.15306703884 0.10979782787 0.12908663141
0.050329141049 0.48476689788 0.72757728194
METADATA
INFORMATION 0

temp2 1 147 double
0.19932609943 0.080484975432 0.62271676952 0.17526854106 0.85265478881 0.20618656795 0.84349132399 0.038892471051 0.90607584362
0.53145615434 0.31918008657 0.20474882787 0.026379692258 0.48104509843 0.50001234209 0.045244591207 0.83508077518 0.47561534276
0.40962142531 0.0011841612877 0.14709018583 0.75095831727 0.48417916779 0.18271087896 0.54656071738 0.75066701975 0.92200696569
0.99769339208 0.26117515176 0.085311465967 0.1646683261 0.81218612228 0.63122274863 0.56536002542 0.61634033728 0.51835579684
0.4278608922 0.630029077 0.61492773995 0.54908405353 0.7708722292 0.25359302007 0.70233431709 0.61075920411 0.9125950554
0.55867195058 0.028337602721 0.75342955411 0.35627445538 0.65575668043 0.10189677317 0.81150143817 0.61299601434 0.21606925506
0.60478711464 0.83937102764 0.85003752009 0.044045564549 0.46397193546 0.76703318221 0.060487798272 0.089849800165 0.6698869959
0.49180368025 0.054588170455 0.60657339138 0.99430585956 0.95520254464 0.41486965842 0.31728314337 0.7863231829 0.021234945228
0.51786325975 0.072245341545 0.7311841733 0.0059933017956 0.14530623862 0.70174168053 0.047421832096 0.65318254961 0.23720001553
0.58673678257 0.22685717667 0.12009824017 0.038425067107 0.035546247175 0.10844204481 0.46533179621 0.19527170909 0.014046989322
0.98575901443 0.12321432463 0.04330563787 0.31288353454 0.77184910491 0.50055628109 0.91733177324 0.94877989401 0.98760860859
0.62370960235 0.1802712889 0.60612390385 0.27937860958 0.78119102642 0.2098678809 0.23795094593 0.87305172717 0.022913016055
0.85021930614 0.34946437346 0.20389954341 0.64959363365 0.10151151857 0.95849443411 0.18591031788 0.26712287986 0.21679083654
0.30027647079 0.92909265289 0.058716366373 0.41706634312 0.62893832977 0.438984896 0.27390875927 0.058657266281 0.05994697265
0.39632622578 0.24057772072 0.26926772847 0.90228743973 0.7462902986 0.55399859345 0.28386352495 0.02032014315 0.84847748999
0.089787722754 0.094645324833 0.70209677424 0.9284726152 0.20015337624 0.61003086407 0.15306703884 0.10979782787 0.12908663141
0.050329141049 0.48476689788 0.72757728194
METADATA
INFORMATION 0

