# vtk DataFile Version 4.2
vtk output
ASCII
DATASET RECTILINEAR_GRID
DIMENSIONS 7 7 3
X_COORDINATES 7 double
0 0.16666666667 0.33333333333 0.5 0.66666666667 0.83333333333 1 
METADATA
INFORMATION 0

Y_COORDINATES 7 double
0 0.16666666667 0.33333333333 0.5 0.66666666667 0.83333333333 1 
METADATA
INFORMATION 0

Z_COORDINATES 3 double
0 0.5 1 
METADATA
INFORMATION 0

CELL_DATA 72
FIELD FieldData 2
pressure1 1 72 double
0.68481602841 0.7408984814 0.17688921297 0.63393817883 0.044208263843 0.82976770229 0.89378590019 0.075092558663 0.43180151434 
0.035131859465 0.134643422 0.47990950523 0.80192557645 0.7468449724 0.20534806841 0.92834914766 0.88198675703 0.45615571918 
0.042484004691 0.87550368235 0.68700029846 0.22131595768 0.75649463584 0.44563818901 0.069957941663 0.46754458779 0.86074528691 
0.95202479824 0.2375718218 0.35798944994 0.19527332554 0.74519124313 0.95125108946 0.93581255986 0.94507096115 0.01704049028 
0.89259582525 0.8848127866 0.88185041179 0.63730034541 0.040485258291 0.86773991306 0.40879356878 0.63753083929 0.72482238033 
0.34846270951 0.32066055117 0.66800047263 0.35008675445 0.57675212419 0.44109084634 0.62252503984 0.74068575587 0.84557747344 
0.89870057861 0.63543896047 0.87469776486 0.97029262447 0.84717730236 0.41587290249 0.14356359296 0.99228835994 0.71032127168 
0.5956867493 0.92442066026 0.7386054156 0.60352799914 0.095139821159 0.3034024004 0.11421540773 0.67402382509 0.48084460187 

METADATA
INFORMATION 0

pressure2 1 72 double
0.68481602841 0.7408984814 0.17688921297 0.63393817883 0.044208263843 0.82976770229 0.89378590019 0.075092558663 0.43180151434 
0.035131859465 0.134643422 0.47990950523 0.80192557645 0.7468449724 0.20534806841 0.92834914766 0.88198675703 0.45615571918 
0.042484004691 0.87550368235 0.68700029846 0.22131595768 0.75649463584 0.44563818901 0.069957941663 0.46754458779 0.86074528691 
0.95202479824 0.2375718218 0.35798944994 0.19527332554 0.74519124313 0.95125108946 0.93581255986 0.94507096115 0.01704049028 
0.89259582525 0.8848127866 0.88185041179 0.63730034541 0.040485258291 0.86773991306 0.40879356878 0.63753083929 0.72482238033 
0.34846270951 0.32066055117 0.66800047263 0.35008675445 0.57675212419 0.44109084634 0.62252503984 0.74068575587 0.84557747344 
0.89870057861 0.63543896047 0.87469776486 0.97029262447 0.84717730236 0.41587290249 0.14356359296 0.99228835994 0.71032127168 
0.5956867493 0.92442066026 0.7386054156 0.60352799914 0.095139821159 0.3034024004 0.11421540773 0.67402382509 0.48084460187 

METADATA
INFORMATION 0

POINT_DATA 147
FIELD FieldData 2
temp1 1 147 double
0.15184421213 0.44742653081 0.095466301934 0.54763321187 0.19324596196 0.81336074461 0.89618473408 0.44987667885 0.80114149531 
0.16315685215 0.99812561567 0.9037730004 0.75268298488 0.53006709174 0.18576458996 0.51199463388 0.41105329773 0.24239596208 
0.85846691194 0.43413524711 0.47267822282 0.60641499485 0.51355839313 0.43287135185 0.47640559997 0.97288961494 0.61429042394 
0.70581048665 0.065936841167 0.63314967535 0.60012026764 0.18594694771 0.16823928819 0.080521273321 0.68190240412 0.75080745507 
0.5353777274 0.96784897933 0.12995469679 0.71846181243 0.66743195557 0.72575238303 0.088554580153 0.20320467526 0.87482370275 
0.65065914812 0.12594994752 0.02725564106 0.15049339894 0.68657697094 0.88013131699 0.94249582775 0.18122748926 0.46658147111 
0.44637444367 0.69280768437 0.92473788911 0.82529254604 0.15755822605 0.0051687595707 0.61460578104 0.7234585607 0.56905630427 
0.75900412905 0.47414886317 0.54394429824 0.34211996751 0.98196177072 0.92221924883 0.77527841623 0.63382558964 0.14924749942 
0.32768385259 0.2895643701 0.10320564521 0.15081282933 0.49996009749 0.32673651659 0.75383874553 0.8571015154 0.56124108275 
0.34393414122 0.9432200479 0.061201799696 0.9985863168 0.60908020181 0.73346253495 0.99490699616 0.15026452495 0.51409752559 
0.75630422794 0.92491239667 0.1099003329 0.57226406431 0.23060786115 0.29605317945 0.034194329357 0.59689719066 0.069093550567 
0.12779281759 0.39340161394 0.2860681582 0.25854783332 0.18894330876 0.85827171176 0.40775520287 0.76044080381 0.74732740091 
0.32219448353 0.39770096191 0.58102050637 0.05189883446 0.99509596567 0.9026782597 0.068170246003 0.16427309592 0.74588518831 
0.4044565828 0.58493877163 0.47228021091 0.65929383313 0.85792127496 0.33328956984 0.3600731556 0.27493365102 0.95807327535 
0.90241394706 0.93271836171 0.44865942466 0.46441902328 0.20433162022 0.56895928481 0.032408533118 0.53155053595 0.3759268701 
0.12034935601 0.12251117325 0.2785867957 0.73229626025 0.0004345801637 0.67193163546 0.81041906487 0.92307518563 0.047169703428 
0.57421165038 0.36437130081 0.20314746133 
METADATA
INFORMATION 0

temp2 1 147 double
0.15184421213 0.44742653081 0.095466301934 0.54763321187 0.19324596196 0.81336074461 0.89618473408 0.44987667885 0.80114149531 
0.16315685215 0.99812561567 0.9037730004 0.75268298488 0.53006709174 0.18576458996 0.51199463388 0.41105329773 0.24239596208 
0.85846691194 0.43413524711 0.47267822282 0.60641499485 0.51355839313 0.43287135185 0.47640559997 0.97288961494 0.61429042394 
0.70581048665 0.065936841167 0.63314967535 0.60012026764 0.18594694771 0.16823928819 0.080521273321 0.68190240412 0.75080745507 
0.5353777274 0.96784897933 0.12995469679 0.71846181243 0.66743195557 0.72575238303 0.088554580153 0.20320467526 0.87482370275 
0.65065914812 0.12594994752 0.02725564106 0.15049339894 0.68657697094 0.88013131699 0.94249582775 0.18122748926 0.46658147111 
0.44637444367 0.69280768437 0.92473788911 0.82529254604 0.15755822605 0.0051687595707 0.61460578104 0.7234585607 0.56905630427 
0.75900412905 0.47414886317 0.54394429824 0.34211996751 0.98196177072 0.92221924883 0.77527841623 0.63382558964 0.14924749942 
0.32768385259 0.2895643701 0.10320564521 0.15081282933 0.49996009749 0.32673651659 0.75383874553 0.8571015154 0.56124108275 
0.34393414122 0.9432200479 0.061201799696 0.9985863168 0.60908020181 0.73346253495 0.99490699616 0.15026452495 0.51409752559 
0.75630422794 0.92491239667 0.1099003329 0.57226406431 0.23060786115 0.29605317945 0.034194329357 0.59689719066 0.069093550567 
0.12779281759 0.39340161394 0.2860681582 0.25854783332 0.18894330876 0.85827171176 0.40775520287 0.76044080381 0.74732740091 
0.32219448353 0.39770096191 0.58102050637 0.05189883446 0.99509596567 0.9026782597 0.068170246003 0.16427309592 0.74588518831 
0.4044565828 0.58493877163 0.47228021091 0.65929383313 0.85792127496 0.33328956984 0.3600731556 0.27493365102 0.95807327535 
0.90241394706 0.93271836171 0.44865942466 0.46441902328 0.20433162022 0.56895928481 0.032408533118 0.53155053595 0.3759268701 
0.12034935601 0.12251117325 0.2785867957 0.73229626025 0.0004345801637 0.67193163546 0.81041906487 0.92307518563 0.047169703428 
0.57421165038 0.36437130081 0.20314746133 
METADATA
INFORMATION 0

