# vtk DataFile Version 4.2
vtk output
ASCII
DATASET RECTILINEAR_GRID
DIMENSIONS 10 4 1
X_COORDINATES 10 double
0 0.11111111111 0.22222222222 0.33333333333 0.44444444444 0.55555555556 0.66666666667 0.77777777778 0.88888888889 
1 
Y_COORDINATES 4 double
0 0.66666666667 1.3333333333 2 
Z_COORDINATES 1 double
0 
CELL_DATA 27
FIELD FieldData 2
pressure1 1 27 double
0.5967368454 0.95115399245 0.08747213813 0.28749644837 0.40514625881 0.16690134756 0.62865801418 0.030783662473 0.73469688514 
0.15982357526 0.94215501991 0.853981868 0.23819470223 0.95185671549 0.37963864995 0.060379164151 0.55299101432 0.40994903565 
0.44752862897 0.94077520508 0.098657258377 0.61637721618 0.61373522457 0.76903310377 0.73321879947 0.54788850996 0.4664110617 

METADATA
INFORMATION 0

pressure2 1 27 double
0.5967368454 0.95115399245 0.08747213813 0.28749644837 0.40514625881 0.16690134756 0.62865801418 0.030783662473 0.73469688514 
0.15982357526 0.94215501991 0.853981868 0.23819470223 0.95185671549 0.37963864995 0.060379164151 0.55299101432 0.40994903565 
0.44752862897 0.94077520508 0.098657258377 0.61637721618 0.61373522457 0.76903310377 0.73321879947 0.54788850996 0.4664110617 

METADATA
INFORMATION 0

POINT_DATA 40
FIELD FieldData 2
temp1 1 40 double
0.70315056489 0.77283040507 0.23882065545 0.47826852144 0.2100912521 0.53921783206 0.20433042163 0.73420831075 0.027654148794 
0.68639133094 0.4330220864 0.28495508317 0.33821187823 0.82527437165 0.54255032296 0.45393458559 0.83989136196 0.85876287932 
0.4214370932 0.19047900181 0.51820664038 0.77471790134 0.60592653466 0.81065380638 0.62617898509 0.38810685582 0.1126304294 
0.20460114912 0.54238177923 0.81393995793 0.96197048162 0.4422555548 0.2418563543 0.1052903392 0.48388728482 0.4595709923 
0.20135841829 0.89066770205 0.34317565499 0.65652281351 
METADATA
INFORMATION 0

temp2 1 40 double
0.70315056489 0.77283040507 0.23882065545 0.47826852144 0.2100912521 0.53921783206 0.20433042163 0.73420831075 0.027654148794 
0.68639133094 0.4330220864 0.28495508317 0.33821187823 0.82527437165 0.54255032296 0.45393458559 0.83989136196 0.85876287932 
0.4214370932 0.19047900181 0.51820664038 0.77471790134 0.60592653466 0.81065380638 0.62617898509 0.38810685582 0.1126304294 
0.20460114912 0.54238177923 0.81393995793 0.96197048162 0.4422555548 0.2418563543 0.1052903392 0.48388728482 0.4595709923 
0.20135841829 0.89066770205 0.34317565499 0.65652281351 
METADATA
INFORMATION 0

