# vtk DataFile Version 4.2
vtk output
ASCII
DATASET RECTILINEAR_GRID
DIMENSIONS 10 1 4
X_COORDINATES 10 double
0 0.11111111111 0.22222222222 0.33333333333 0.44444444444 0.55555555556 0.66666666667 0.77777777778 0.88888888889 
1 
Y_COORDINATES 1 double
0 
Z_COORDINATES 4 double
0 0.66666666667 1.3333333333 2 
CELL_DATA 27
FIELD FieldData 2
pressure1 1 27 double
0.23241625202 0.11445560209 0.76365154653 0.47087525569 0.72431649469 0.92392403459 0.77855368618 0.84124534651 0.23006099738 
0.072055527286 0.54402393208 0.76577680989 0.95543852626 0.5500200629 0.87894640567 0.1649442032 0.015127389286 0.91713330418 
0.88199809591 0.67635433792 0.022145891361 0.27235031166 0.2517931659 0.23538443475 0.83078337459 0.12698638054 0.32136110723 

METADATA
INFORMATION 0

pressure2 1 27 double
0.23241625202 0.11445560209 0.76365154653 0.47087525569 0.72431649469 0.92392403459 0.77855368618 0.84124534651 0.23006099738 
0.072055527286 0.54402393208 0.76577680989 0.95543852626 0.5500200629 0.87894640567 0.1649442032 0.015127389286 0.91713330418 
0.88199809591 0.67635433792 0.022145891361 0.27235031166 0.2517931659 0.23538443475 0.83078337459 0.12698638054 0.32136110723 

METADATA
INFORMATION 0

POINT_DATA 40
FIELD FieldData 2
temp1 1 40 double
0.63326220102 0.65880449811 0.092134010247 0.26224177577 0.18028495303 0.45655723881 0.75424083555 0.25092637201 0.42578021015 
0.34947513336 0.80900439304 0.10986986982 0.79435528494 0.040592168323 0.34699882279 0.64743497427 0.77190625479 0.87132637738 
0.85488395442 0.68169002004 0.479460097 0.44164793037 0.42271564266 0.60839199607 0.16007533174 0.11289515092 0.72833184529 
0.067663762988 0.86608996337 0.30484964892 0.96540154884 0.94371142461 0.14854998865 0.66201000286 0.29212325327 0.088839789059 
0.94721379534 0.16104719752 0.21336087397 0.98095779109 
METADATA
INFORMATION 0

temp2 1 40 double
0.63326220102 0.65880449811 0.092134010247 0.26224177577 0.18028495303 0.45655723881 0.75424083555 0.25092637201 0.42578021015 
0.34947513336 0.80900439304 0.10986986982 0.79435528494 0.040592168323 0.34699882279 0.64743497427 0.77190625479 0.87132637738 
0.85488395442 0.68169002004 0.479460097 0.44164793037 0.42271564266 0.60839199607 0.16007533174 0.11289515092 0.72833184529 
0.067663762988 0.86608996337 0.30484964892 0.96540154884 0.94371142461 0.14854998865 0.66201000286 0.29212325327 0.088839789059 
0.94721379534 0.16104719752 0.21336087397 0.98095779109 
METADATA
INFORMATION 0

